# vtk DataFile Version 2.0
Simplicial Mesh Example
ASCII
DATASET UNSTRUCTURED_GRID
POINTS 8 double
-5.000000e-01 -5.000000e-01 5.000000e-01
-5.000000e-01 -5.000000e-01 -5.000000e-01
-5.000000e-01 5.000000e-01 -5.000000e-01
-5.000000e-01 5.000000e-01 5.000000e-01
5.000000e-01 -5.000000e-01 5.000000e-01
5.000000e-01 -5.000000e-01 -5.000000e-01
5.000000e-01 5.000000e-01 -5.000000e-01
5.000000e-01 5.000000e-01 5.000000e-01
CELLS 1 9
8  0 1 2 3 4 5 6 7
CELL_TYPES 1
12
POINT_DATA 8
VECTORS Vec_0x84000000_7 double
1.884338e-16 2.216893e-16 2.216893e-16
7.500000e-01 7.500000e-01 7.500000e-01
7.500000e-01 7.500000e-01 7.500000e-01
7.500000e-01 7.500000e-01 7.500000e-01
7.500000e-01 7.500000e-01 7.500000e-01
7.500000e-01 7.500000e-01 7.500000e-01
7.500000e-01 7.500000e-01 7.500000e-01
7.500000e-01 7.500000e-01 7.500000e-01
7.500000e-01 7.500000e-01 7.500000e-01
