# vtk DataFile Version 2.0
Simplicial Mesh Example
ASCII
DATASET UNSTRUCTURED_GRID
POINTS 1000 double
6.322560e-01 -3.266544e-01 -4.583333e+00
5.544030e-01 -5.564805e-01 -4.583333e+00
3.249412e-01 -6.324994e-01 -4.583333e+00
3.535534e-01 -3.535534e-01 -4.583333e+00
6.322560e-01 -3.266544e-01 -5.000000e+00
5.544030e-01 -5.564805e-01 -5.000000e+00
3.249412e-01 -6.324994e-01 -5.000000e+00
3.535534e-01 -3.535534e-01 -5.000000e+00
7.066062e-01 -3.951136e-04 -4.583333e+00
5.000000e-01 0.000000e+00 -4.583333e+00
7.066062e-01 -3.951136e-04 -5.000000e+00
5.000000e-01 0.000000e+00 -5.000000e+00
-3.535534e-01 -3.535534e-01 -4.583333e+00
-3.252367e-01 -6.315586e-01 -4.583333e+00
-5.553555e-01 -5.550375e-01 -4.583333e+00
-6.317992e-01 -3.251676e-01 -4.583333e+00
-3.535534e-01 -3.535534e-01 -5.000000e+00
-3.252367e-01 -6.315586e-01 -5.000000e+00
-5.553555e-01 -5.550375e-01 -5.000000e+00
-6.317992e-01 -3.251676e-01 -5.000000e+00
-7.071068e-01 -7.071068e-01 -4.583333e+00
-9.238795e-01 -3.826834e-01 -4.583333e+00
-7.071068e-01 -7.071068e-01 -5.000000e+00
-9.238795e-01 -3.826834e-01 -5.000000e+00
-3.826834e-01 -9.238795e-01 -4.583333e+00
-3.826834e-01 -9.238795e-01 -5.000000e+00
-9.184851e-17 -5.000000e-01 -4.583333e+00
1.225715e-04 -7.062088e-01 -4.583333e+00
-9.184851e-17 -5.000000e-01 -5.000000e+00
1.225715e-04 -7.062088e-01 -5.000000e+00
6.123234e-17 -1.000000e+00 -4.583333e+00
6.123234e-17 -1.000000e+00 -5.000000e+00
-3.535534e-01 3.535534e-01 -4.583333e+00
-6.317455e-01 3.254141e-01 -4.583333e+00
-5.546801e-01 5.548152e-01 -4.583333e+00
-3.251881e-01 6.319248e-01 -4.583333e+00
-3.535534e-01 3.535534e-01 -5.000000e+00
-6.317455e-01 3.254141e-01 -5.000000e+00
-5.546801e-01 5.548152e-01 -5.000000e+00
-3.251881e-01 6.319248e-01 -5.000000e+00
-7.071068e-01 7.071068e-01 -4.583333e+00
-3.826834e-01 9.238795e-01 -4.583333e+00
-7.071068e-01 7.071068e-01 -5.000000e+00
-3.826834e-01 9.238795e-01 -5.000000e+00
-9.238795e-01 3.826834e-01 -4.583333e+00
-9.238795e-01 3.826834e-01 -5.000000e+00
-5.000000e-01 6.123234e-17 -4.583333e+00
-7.068175e-01 -7.279229e-05 -4.583333e+00
-5.000000e-01 6.123234e-17 -5.000000e+00
-7.068175e-01 -7.279229e-05 -5.000000e+00
-1.000000e+00 5.665539e-16 -4.583333e+00
-1.000000e+00 -1.224647e-16 -5.000000e+00
9.238795e-01 -3.826834e-01 -4.583333e+00
7.071068e-01 -7.071068e-01 -4.583333e+00
9.238795e-01 -3.826834e-01 -5.000000e+00
7.071068e-01 -7.071068e-01 -5.000000e+00
1.000000e+00 0.000000e+00 -4.583333e+00
1.000000e+00 0.000000e+00 -5.000000e+00
3.826834e-01 -9.238795e-01 -4.583333e+00
3.826834e-01 -9.238795e-01 -5.000000e+00
3.535534e-01 3.535534e-01 -4.583333e+00
3.251191e-01 6.316272e-01 -4.583333e+00
5.548077e-01 5.547357e-01 -4.583333e+00
6.316523e-01 3.249658e-01 -4.583333e+00
3.535534e-01 3.535534e-01 -5.000000e+00
3.251191e-01 6.316272e-01 -5.000000e+00
5.548077e-01 5.547357e-01 -5.000000e+00
6.316523e-01 3.249658e-01 -5.000000e+00
7.071068e-01 7.071068e-01 -4.583333e+00
9.238795e-01 3.826834e-01 -4.583333e+00
7.071068e-01 7.071068e-01 -5.000000e+00
9.238795e-01 3.826834e-01 -5.000000e+00
3.826834e-01 9.238795e-01 -4.583333e+00
3.826834e-01 9.238795e-01 -5.000000e+00
1.530808e-16 5.000000e-01 -4.583333e+00
-1.951623e-05 7.068888e-01 -4.583333e+00
3.061617e-17 5.000000e-01 -5.000000e+00
-1.951623e-05 7.068888e-01 -5.000000e+00
-2.603303e-15 1.000000e+00 -4.583333e+00
-1.836970e-16 1.000000e+00 -5.000000e+00
6.322560e-01 -3.266544e-01 -4.166667e+00
5.544030e-01 -5.564805e-01 -4.166667e+00
3.249412e-01 -6.324994e-01 -4.166667e+00
3.535534e-01 -3.535534e-01 -4.166667e+00
7.066062e-01 -3.951136e-04 -4.166667e+00
5.000000e-01 0.000000e+00 -4.166667e+00
-3.535534e-01 -3.535534e-01 -4.166667e+00
-3.252367e-01 -6.315586e-01 -4.166667e+00
-5.553555e-01 -5.550375e-01 -4.166667e+00
-6.317992e-01 -3.251676e-01 -4.166667e+00
-7.071068e-01 -7.071068e-01 -4.166667e+00
-9.238795e-01 -3.826834e-01 -4.166667e+00
-3.826834e-01 -9.238795e-01 -4.166667e+00
1.240419e-15 -5.000000e-01 -4.166667e+00
1.225715e-04 -7.062088e-01 -4.166667e+00
6.123234e-17 -1.000000e+00 -4.166667e+00
-3.535534e-01 3.535534e-01 -4.166667e+00
-6.317455e-01 3.254141e-01 -4.166667e+00
-5.546801e-01 5.548152e-01 -4.166667e+00
-3.251881e-01 6.319248e-01 -4.166667e+00
-7.071068e-01 7.071068e-01 -4.166667e+00
-3.826834e-01 9.238795e-01 -4.166667e+00
-9.238795e-01 3.826834e-01 -4.166667e+00
-5.000000e-01 6.123234e-17 -4.166667e+00
-7.068175e-01 -7.279229e-05 -4.166667e+00
-1.000000e+00 -1.224647e-16 -4.166667e+00
9.238795e-01 -3.826834e-01 -4.166667e+00
7.071068e-01 -7.071068e-01 -4.166667e+00
1.000000e+00 0.000000e+00 -4.166667e+00
3.826834e-01 -9.238795e-01 -4.166667e+00
3.535534e-01 3.535534e-01 -4.166667e+00
3.251191e-01 6.316272e-01 -4.166667e+00
5.548077e-01 5.547357e-01 -4.166667e+00
6.316523e-01 3.249658e-01 -4.166667e+00
7.071068e-01 7.071068e-01 -4.166667e+00
9.238795e-01 3.826834e-01 -4.166667e+00
3.826834e-01 9.238795e-01 -4.166667e+00
1.530808e-16 5.000000e-01 -4.166667e+00
-1.951623e-05 7.068888e-01 -4.166667e+00
-8.269461e-16 1.000000e+00 -4.166667e+00
6.322560e-01 -3.266544e-01 -3.750000e+00
5.544030e-01 -5.564805e-01 -3.750000e+00
3.249412e-01 -6.324994e-01 -3.750000e+00
3.535534e-01 -3.535534e-01 -3.750000e+00
7.066062e-01 -3.951136e-04 -3.750000e+00
5.000000e-01 0.000000e+00 -3.750000e+00
-3.535534e-01 -3.535534e-01 -3.750000e+00
-3.252367e-01 -6.315586e-01 -3.750000e+00
-5.553555e-01 -5.550375e-01 -3.750000e+00
-6.317992e-01 -3.251676e-01 -3.750000e+00
-7.071068e-01 -7.071068e-01 -3.750000e+00
-9.238795e-01 -3.826834e-01 -3.750000e+00
-3.826834e-01 -9.238795e-01 -3.750000e+00
-9.184851e-17 -5.000000e-01 -3.750000e+00
1.225715e-04 -7.062088e-01 -3.750000e+00
6.123234e-17 -1.000000e+00 -3.750000e+00
-3.535534e-01 3.535534e-01 -3.750000e+00
-6.317455e-01 3.254141e-01 -3.750000e+00
-5.546801e-01 5.548152e-01 -3.750000e+00
-3.251881e-01 6.319248e-01 -3.750000e+00
-7.071068e-01 7.071068e-01 -3.750000e+00
-3.826834e-01 9.238795e-01 -3.750000e+00
-9.238795e-01 3.826834e-01 -3.750000e+00
-5.000000e-01 6.123234e-17 -3.750000e+00
-7.068175e-01 -7.279229e-05 -3.750000e+00
-1.000000e+00 1.010643e-15 -3.750000e+00
9.238795e-01 -3.826834e-01 -3.750000e+00
7.071068e-01 -7.071068e-01 -3.750000e+00
1.000000e+00 0.000000e+00 -3.750000e+00
3.826834e-01 -9.238795e-01 -3.750000e+00
3.535534e-01 3.535534e-01 -3.750000e+00
3.251191e-01 6.316272e-01 -3.750000e+00
5.548077e-01 5.547357e-01 -3.750000e+00
6.316523e-01 3.249658e-01 -3.750000e+00
7.071068e-01 7.071068e-01 -3.750000e+00
9.238795e-01 3.826834e-01 -3.750000e+00
3.826834e-01 9.238795e-01 -3.750000e+00
1.530808e-16 5.000000e-01 -3.750000e+00
-1.951623e-05 7.068888e-01 -3.750000e+00
6.123234e-17 1.000000e+00 -3.750000e+00
6.322560e-01 -3.266544e-01 -3.333333e+00
5.544030e-01 -5.564805e-01 -3.333333e+00
3.249412e-01 -6.324994e-01 -3.333333e+00
3.535534e-01 -3.535534e-01 -3.333333e+00
7.066062e-01 -3.951136e-04 -3.333333e+00
5.000000e-01 0.000000e+00 -3.333333e+00
-3.535534e-01 -3.535534e-01 -3.333333e+00
-3.252367e-01 -6.315586e-01 -3.333333e+00
-5.553555e-01 -5.550375e-01 -3.333333e+00
-6.317992e-01 -3.251676e-01 -3.333333e+00
-7.071068e-01 -7.071068e-01 -3.333333e+00
-9.238795e-01 -3.826834e-01 -3.333333e+00
-3.826834e-01 -9.238795e-01 -3.333333e+00
-9.184851e-17 -5.000000e-01 -3.333333e+00
1.225715e-04 -7.062088e-01 -3.333333e+00
6.123234e-17 -1.000000e+00 -3.333333e+00
-3.535534e-01 3.535534e-01 -3.333333e+00
-6.317455e-01 3.254141e-01 -3.333333e+00
-5.546801e-01 5.548152e-01 -3.333333e+00
-3.251881e-01 6.319248e-01 -3.333333e+00
-7.071068e-01 7.071068e-01 -3.333333e+00
-3.826834e-01 9.238795e-01 -3.333333e+00
-9.238795e-01 3.826834e-01 -3.333333e+00
-5.000000e-01 6.123234e-17 -3.333333e+00
-7.068175e-01 -7.279229e-05 -3.333333e+00
-1.000000e+00 -1.224647e-16 -3.333333e+00
9.238795e-01 -3.826834e-01 -3.333333e+00
7.071068e-01 -7.071068e-01 -3.333333e+00
1.000000e+00 0.000000e+00 -3.333333e+00
3.826834e-01 -9.238795e-01 -3.333333e+00
3.535534e-01 3.535534e-01 -3.333333e+00
3.251191e-01 6.316272e-01 -3.333333e+00
5.548077e-01 5.547357e-01 -3.333333e+00
6.316523e-01 3.249658e-01 -3.333333e+00
7.071068e-01 7.071068e-01 -3.333333e+00
9.238795e-01 3.826834e-01 -3.333333e+00
3.826834e-01 9.238795e-01 -3.333333e+00
1.530808e-16 5.000000e-01 -3.333333e+00
-1.951623e-05 7.068888e-01 -3.333333e+00
-8.269461e-16 1.000000e+00 -3.333333e+00
6.322560e-01 -3.266544e-01 -2.916667e+00
5.544030e-01 -5.564805e-01 -2.916667e+00
3.249412e-01 -6.324994e-01 -2.916667e+00
3.535534e-01 -3.535534e-01 -2.916667e+00
7.066062e-01 -3.951136e-04 -2.916667e+00
5.000000e-01 0.000000e+00 -2.916667e+00
-3.535534e-01 -3.535534e-01 -2.916667e+00
-3.252367e-01 -6.315586e-01 -2.916667e+00
-5.553555e-01 -5.550375e-01 -2.916667e+00
-6.317992e-01 -3.251676e-01 -2.916667e+00
-7.071068e-01 -7.071068e-01 -2.916667e+00
-9.238795e-01 -3.826834e-01 -2.916667e+00
-3.826834e-01 -9.238795e-01 -2.916667e+00
-9.184851e-17 -5.000000e-01 -2.916667e+00
1.225715e-04 -7.062088e-01 -2.916667e+00
6.123234e-17 -1.000000e+00 -2.916667e+00
-3.535534e-01 3.535534e-01 -2.916667e+00
-6.317455e-01 3.254141e-01 -2.916667e+00
-5.546801e-01 5.548152e-01 -2.916667e+00
-3.251881e-01 6.319248e-01 -2.916667e+00
-7.071068e-01 7.071068e-01 -2.916667e+00
-3.826834e-01 9.238795e-01 -2.916667e+00
-9.238795e-01 3.826834e-01 -2.916667e+00
-5.000000e-01 6.123234e-17 -2.916667e+00
-7.068175e-01 -7.279229e-05 -2.916667e+00
-1.000000e+00 -1.224647e-16 -2.916667e+00
9.238795e-01 -3.826834e-01 -2.916667e+00
7.071068e-01 -7.071068e-01 -2.916667e+00
1.000000e+00 0.000000e+00 -2.916667e+00
3.826834e-01 -9.238795e-01 -2.916667e+00
3.535534e-01 3.535534e-01 -2.916667e+00
3.251191e-01 6.316272e-01 -2.916667e+00
5.548077e-01 5.547357e-01 -2.916667e+00
6.316523e-01 3.249658e-01 -2.916667e+00
7.071068e-01 7.071068e-01 -2.916667e+00
9.238795e-01 3.826834e-01 -2.916667e+00
3.826834e-01 9.238795e-01 -2.916667e+00
1.530808e-16 5.000000e-01 -2.916667e+00
-1.951623e-05 7.068888e-01 -2.916667e+00
6.123234e-17 1.000000e+00 -2.916667e+00
6.322560e-01 -3.266544e-01 -2.500000e+00
[...]
POINT_DATA 1000
SCALARS Vec_0x84000000_7PetscFE_0x84000000_3 double 24
LOOKUP_TABLE default
-1.054233e+01 1.377230e+02 3.008226e+01 -6.644140e+00 2.168327e+02 3.083924e+01 -2.521341e+01 9.618156e+01 3.119710e+01 -1.661916e+01 1.719292e+02 3.588116e+01 -4.633959e+00 1.303347e+02 -3.004700e+00 2.313529e+00 1.939485e+02 -3.538236e+00 -1.817361e+01 8.581957e+01 -1.901618e+00 -4.890991e+00 1.528772e+02 -2.275741e+00
1.775481e+01 4.280298e+01 7.161154e+00 3.459742e+00 6.747070e+01 1.682740e+01 1.052677e+01 3.841458e+01 5.244868e+00 3.050832e+00 4.726591e+01 1.485550e+01 1.122905e+01 6.538560e+01 2.587821e+00 3.255803e+00 7.890398e+01 9.097824e-01 8.514305e+00 4.536032e+01 -3.988959e-01 2.982294e+00 4.530606e+01 -1.653731e+00
-9.844550e+01 2.433021e+02 -4.738241e+01 -1.062305e+02 1.818323e+02 -4.096888e+01 -9.685334e+01 4.270211e+02 -4.141597e+01 -1.122568e+02 3.118342e+02 -3.899024e+01 -5.315939e+01 1.287565e+02 -3.303651e+00 -5.446682e+01 7.522741e+01 -2.482239e+00 -5.277277e+01 2.365058e+02 3.182207e+00 -5.871592e+01 1.541641e+02 2.388520e+00
-9.328091e+01 3.486896e+02 -1.847786e+01 -3.746375e+01 1.871444e+02 -1.554270e+00 -7.432473e+01 4.948424e+02 -1.574252e+01 -3.815307e+01 2.913171e+02 -1.653611e+00 -5.132839e+01 1.856822e+02 1.624999e+01 -1.835997e+01 1.052368e+02 1.755404e+01 -3.832064e+01 2.869615e+02 1.794847e+01 -1.924560e+01 1.784267e+02 2.070871e+01
-8.899637e+01 1.423310e+02 1.945401e+01 -4.052149e+01 7.459838e+01 4.921165e+01 -8.381792e+01 2.294773e+02 1.204139e+00 -3.926567e+01 1.132205e+02 3.028327e+01 -4.668043e+01 5.249782e+01 1.724004e+01 -1.903838e+01 3.142613e+01 1.988382e+01 -4.313879e+01 1.071689e+02 1.555727e+01 -1.950624e+01 5.713380e+01 1.863847e+01
-7.946178e+01 7.324539e+01 -2.939615e+01 -5.016103e+01 4.206795e+01 -5.170715e+01 -7.146306e+01 4.607320e+01 -1.056296e+01 -2.995599e+01 2.190099e+01 -4.094524e+01 -3.935091e+01 7.701391e+00 -6.802482e+00 -2.326049e+01 1.006041e+01 -1.020953e+01 -3.898229e+01 1.322443e-01 -2.841433e+00 -1.178493e+01 4.187755e-01 -6.222680e+00
-7.535466e+01 5.975948e+01 4.245518e+01 -7.241770e+01 5.812238e+01 4.014261e+01 -3.245365e+01 3.138608e+01 5.655443e+01 -2.083628e+01 2.443655e+01 4.640468e+01 -3.530796e+01 -6.099809e-03 1.628787e+01 -3.281137e+01 9.045018e+00 1.446393e+01 -1.129803e+01 7.702742e+00 1.870486e+01 4.425240e+00 4.513005e+00 1.657202e+01
6.656539e+01 1.785454e+02 1.244798e+01 7.197843e+01 2.868602e+02 1.564326e+01 7.259734e+01 1.568658e+02 9.087296e+00 7.164538e+01 2.134628e+02 2.008693e+01 3.961365e+01 8.905523e+01 -5.548302e+00 4.283644e+01 1.520915e+02 -9.196557e+00 4.326800e+01 6.745704e+01 -8.345538e+00 4.326324e+01 1.013184e+02 -8.980500e+00
5.097222e+01 1.112337e+02 7.289264e+00 1.661035e+01 3.732462e+01 -1.130968e+01 5.467298e+01 1.003672e+02 -1.390460e+01 1.804216e+01 3.163502e+01 -2.912470e+01 3.120091e+01 3.864642e+01 -9.051339e+00 8.000513e+00 7.146309e+00 -8.539725e+00 3.029638e+01 3.325265e+01 -1.306191e+01 5.040081e+00 2.079792e+00 -9.879518e+00
5.863121e+01 3.531702e+02 7.628036e+00 2.662660e+01 2.284260e+02 6.311794e+00 6.851650e+01 1.972857e+02 2.249678e+01 2.504230e+01 1.169080e+02 1.525710e+01 3.705386e+01 2.205921e+02 -1.876590e+01 1.522805e+01 1.520196e+02 -1.924272e+01 4.560863e+01 1.036189e+02 -1.029688e+01 1.504329e+01 7.023254e+01 -1.214981e+01
4.077833e+01 3.826009e+02 1.282319e+01 1.638438e+01 1.924717e+02 1.000058e+01 1.115288e+01 4.563874e+02 2.860086e+00 4.139397e+00 2.050875e+02 4.261881e+00 2.033903e+01 2.226865e+02 -6.138265e+00 9.796526e+00 1.150566e+02 -4.495610e+00 3.604217e+00 2.870080e+02 -6.480721e+00 3.621634e+00 1.377270e+02 -2.922847e+00
2.610508e+01 5.555856e+02 -8.874605e+00 1.253275e+00 6.453424e+02 -2.045236e+01 9.658169e+00 3.514237e+02 -1.014551e+01 4.214307e+00 3.486504e+02 -1.558316e+01 1.189204e+01 3.708103e+02 -1.555370e+01 -2.598252e+00 4.279417e+02 -1.523350e+01 1.792183e+00 2.428513e+02 -1.838077e+01 1.223391e+00 2.413199e+02 -1.442847e+01
4.180473e+00 9.682755e+01 1.430259e+01 8.412782e+00 4.692492e+01 4.490879e-01 1.152932e+01 1.987486e+02 1.080972e+01 1.545020e+01 1.017334e+02 -5.913838e+00 8.041313e+00 1.091843e+02 -3.300724e+00 9.979982e+00 5.709427e+01 -2.784685e+00 1.921930e+01 1.906551e+02 -2.796156e+00 1.748956e+01 1.018216e+02 1.753534e-01
1.042886e+01 -3.341897e+01 1.168070e+01 1.949560e+00 -4.243967e+01 6.479239e+00 4.467307e+00 -7.899044e+00 1.922647e+01 5.168731e+00 -3.040435e+01 1.092963e+01 6.109393e+00 -8.897477e-02 3.950328e+00 1.294246e+00 -2.369089e+01 2.127780e+00 3.569151e+00 2.223336e+01 -3.276355e-01 5.430489e+00 -1.259918e+01 -2.127272e+00
-3.137549e+01 1.814899e+01 3.576893e+01 -4.878818e+01 -2.342508e+00 1.671133e+01 -2.791875e+01 -1.880741e+01 1.020611e+01 -2.046236e+01 -1.643523e+01 -1.361849e+01 -1.950930e+01 1.553487e+01 1.431904e+00 -3.135994e+01 -1.714660e+01 -1.636924e+00 -2.422823e+01 -1.920643e+01 3.451543e+00 -1.364914e+01 -2.452142e+01 7.582189e-01
3.024059e+01 8.605390e+01 -3.402634e+01 -1.400433e+00 6.651642e+01 -9.797078e+00 1.544610e+01 1.284531e+02 1.012392e+00 -2.462677e+01 9.509995e+01 1.883353e+01 3.654596e+01 8.146287e+01 1.242215e+01 1.860711e+01 6.150994e+01 1.381961e+01 2.940504e+01 1.187498e+02 2.927941e+00 1.583099e+00 7.828881e+01 6.574142e+00
3.780889e+01 1.625147e+02 -3.624877e+01 2.912221e+01 2.526977e+02 -5.984970e+00 2.608746e+01 1.703393e+02 -3.069293e+01 1.933603e+01 2.861165e+02 -3.148239e+00 3.713210e+01 1.510058e+02 1.405645e+01 3.734942e+01 2.281442e+02 2.787486e+00 2.573048e+01 1.586119e+02 1.120437e+01 2.657125e+01 2.597060e+02 2.189510e+00
-1.023225e+01 5.593514e+02 -2.028443e+01 2.311352e+00 2.595607e+02 -5.612373e+00 -4.702989e+01 5.664809e+02 -3.491281e+01 -1.259098e+01 2.907494e+02 -1.988354e+01 -5.820020e+00 3.675299e+02 -1.364918e+01 1.698322e+00 1.850211e+02 -6.226784e+00 -2.318511e+01 3.540122e+02 -7.537320e+00 -5.952002e+00 1.917600e+02 -3.185487e+00
-2.440485e+01 6.803218e+02 -2.935041e+01 -3.815407e+01 6.528039e+02 -2.552332e+01 -2.445444e+01 3.723462e+02 -1.551679e+01 -2.539027e+01 4.032265e+02 -1.060227e+01 -1.436754e+01 4.391580e+02 -7.663412e+00 -1.715151e+01 4.079591e+02 7.909288e-01 -1.428893e+01 2.573615e+02 -1.797662e+00 -1.082125e+01 2.691698e+02 8.725332e+00
4.768105e+00 -3.000914e+00 -1.264855e+01 -1.209489e+01 -4.508588e+01 3.046009e+01 2.391205e+01 6.179755e+01 -9.481808e+00 -4.032019e+00 -1.332759e+01 3.580136e+01 -5.950031e+00 3.358380e+01 -1.547525e+00 -2.290033e+01 3.072047e+00 -1.838780e+00 7.993877e+00 9.875855e+01 2.088170e-01 -1.420368e+01 3.693042e+01 -9.506214e-01
6.526451e+00 1.290174e+02 4.266495e+01 -2.209641e-02 1.114323e+02 3.117637e+01 1.619560e+01 1.988063e+02 7.643418e+00 4.978176e-01 1.306988e+02 1.088222e+01 1.921098e+00 1.500180e+02 -3.509633e+00 1.216867e+00 1.128146e+02 -6.613872e+00 4.837293e+00 2.004786e+02 1.196921e+00 -1.266820e+00 1.223180e+02 -2.059293e+00
9.410636e+00 -1.439420e+02 4.917818e+01 2.931464e+01 -1.128915e+02 1.641794e+01 -1.220938e+01 -1.203451e+02 6.486322e+01 -5.319639e+00 -7.443049e+01 2.906612e+01 -3.883198e+00 -9.180129e+01 6.471544e+00 1.844274e+01 -8.736483e+01 1.411137e+01 -1.708866e+01 -7.087022e+01 4.325725e+00 -9.665976e+00 -5.566252e+01 7.852400e+00
1.602853e+00 -2.335786e+01 1.629542e+01 -1.351443e+00 -8.925399e+00 -1.166584e+00 2.370761e+01 -1.384038e+01 9.587782e+00 5.987760e+00 -5.989150e+00 5.573354e+00 -1.177588e+01 -3.582026e+00 -4.054745e-01 -4.490942e+00 5.190583e-01 -1.292398e+00 4.487458e+00 -6.808487e+00 -1.535384e+00 -5.378740e-02 -2.618840e+00 -6.481017e-01
3.692850e+01 -3.635238e+01 9.593456e+00 4.299115e+01 -3.711271e+01 -1.998826e+00 4.085257e+01 -2.603621e+01 1.135360e+00 3.051545e+01 -2.237195e+01 -5.994433e+00 1.434115e+01 -1.617490e+01 2.621110e+00 1.838952e+01 -2.959147e+01 -1.591322e+00 2.600566e+01 -1.696821e+01 5.812700e+00 1.537995e+01 -1.967412e+01 1.775919e+00
3.762356e+01 -5.636586e-01 5.647627e+00 1.960685e+01 2.297119e+00 6.510788e+00 5.244701e+01 3.515436e+01 5.646211e+00 3.027864e+01 2.266513e+01 9.544523e+00 1.503457e+01 -3.039925e+00 -1.721546e+00 1.009656e+01 -9.681779e-01 -5.653057e-01 2.860212e+01 1.050765e+01 -2.183971e+00 1.784440e+01 7.445663e+00 6.904295e-01
4.683991e+01 -3.288195e+00 -6.679633e+00 5.669901e+01 3.276727e+01 -1.247121e+01 3.293075e+01 1.867041e+00 -8.506649e+00 2.899444e+01 1.510496e+01 -1.722856e+01 1.977004e+01 -3.855939e+00 -3.537018e+00 2.704113e+01 1.173317e+01 -7.048871e+00 1.647958e+01 4.866603e-01 -2.710641e+00 1.067189e+01 4.744913e+00 -6.654623e+00
3.896775e+01 6.824034e+01 -2.018947e+01 3.023406e+01 5.202987e+01 -4.273829e+00 1.732982e+01 9.002656e+00 -2.572914e+01 1.375839e+01 2.434535e+01 -1.338199e+01 2.112808e+01 9.424635e+01 1.046509e+00 1.640854e+01 7.606488e+01 2.339293e+00 7.221572e+00 3.178185e+01 -1.493677e-01 5.448031e+00 4.149098e+01 -3.867983e-01
1.579646e+01 1.031147e+02 -1.039762e+01 -3.891385e+00 5.420805e+01 -6.115325e+00 1.574860e+01 1.880975e+01 1.250635e+00 7.185685e-01 6.623133e-01 -4.282953e-01 3.368557e+00 1.083089e+02 5.757880e+00 -8.112125e+00 5.259081e+01 3.784176e+00 6.794152e+00 4.044468e+01 5.720449e+00 -2.014923e+00 1.119380e+01 3.529918e+00
-2.350512e+01 -1.027338e+02 9.181438e+00 -3.706014e+01 -1.169764e+02 -3.675076e+00 -2.080158e+01 -5.433609e+01 -1.856815e+00 -4.121917e+01 -8.938681e+01 -7.315918e+00 -2.355488e+01 -8.514868e+01 4.090845e+01 -3.267183e+01 -9.140824e+01 3.812613e+01 -2.192231e+01 -4.061165e+01 3.670498e+01 -3.696676e+01 -6.728682e+01 4.135403e+01
1.834438e+01 -1.261210e+02 3.070772e+01 1.488751e+00 -1.079113e+02 2.532188e+01 2.348076e+00 -5.498533e+01 1.817037e+01 -3.103420e+00 -3.481471e+01 7.982838e+00 2.190142e+01 -1.350362e+02 1.828977e+01 9.753588e-01 -1.057951e+02 2.846011e+01 2.657431e+00 -5.792131e+01 1.375655e+01 -3.640510e+00 -3.000740e+01 2.091057e+01
-1.313450e+02 2.805895e+02 1.453708e+01 -1.302779e+02 3.413949e+02 1.218261e+01 -1.231622e+02 4.043313e+02 1.435216e+00 -1.372307e+02 4.151278e+02 3.420774e+00 -1.382380e+02 2.979910e+02 -4.264553e+01 -1.373553e+02 3.538025e+02 -3.267893e+01 -1.312022e+02 4.396419e+02 -5.077293e+01 -1.458378e+02 4.399299e+02 -3.957876e+01
-1.170947e+02 3.861410e+02 -9.306702e+00 -4.876188e+01 1.908013e+02 -8.590009e+00 -9.979550e+01 4.240909e+02 -1.678813e+01 -4.504161e+01 2.414365e+02 -1.329428e+01 -1.256799e+02 4.182791e+02 -3.654278e+01 -5.280585e+01 2.101152e+02 -1.727497e+01 -1.076121e+02 4.729936e+02 -4.767428e+01 -4.916288e+01 2.733589e+02 -2.993477e+01
-9.897005e+01 3.781724e+02 -1.462111e+01 -6.528253e+01 2.248615e+02 -2.608406e+01 -9.532941e+01 4.277045e+02 -1.069705e+01 -4.982836e+01 2.398832e+02 -1.805991e+01 -1.050115e+02 3.872044e+02 1.556433e+00 -6.783253e+01 2.291703e+02 1.995921e+01 -1.019633e+02 4.459325e+02 -1.502107e+01 -5.344044e+01 2.492789e+02 5.570683e+00
-9.393675e+01 3.808206e+02 1.668147e+01 -8.964916e+01 1.949743e+02 2.400803e+01 -7.291836e+01 3.272072e+02 1.331947e+01 -5.067306e+01 1.748736e+02 2.121211e+01 -9.901089e+01 3.835814e+02 -1.723451e+01 -9.247538e+01 1.968697e+02 -3.054456e+01 -7.752588e+01 3.296055e+02 -1.895950e+00 -5.294767e+01 1.757273e+02 -2.334150e+01
-1.015640e+02 3.365703e+02 -1.971282e+01 -1.187217e+02 3.033162e+02 -1.492052e+01 -7.119670e+01 1.504296e+02 -3.016993e+01 -9.296492e+01 1.428665e+02 -2.598025e+01 -1.046728e+02 3.367428e+02 2.099786e+01 -1.189451e+02 3.059183e+02 2.276583e+01 -7.073498e+01 1.504699e+02 2.748011e+01 -8.849007e+01 1.440627e+02 2.066718e+01
6.680708e+01 2.751094e+02 5.253003e-01 6.974505e+01 3.253630e+02 4.164682e+00 5.532174e+01 2.974198e+02 9.205319e+00 4.815846e+01 3.080259e+02 9.193768e+00 7.328078e+01 2.972319e+02 1.998812e+01 7.794496e+01 3.667486e+02 2.871796e+01 6.560548e+01 3.168408e+02 2.098681e+01 6.030990e+01 3.384334e+02 3.181941e+01
1.135710e+01 2.651359e+02 1.589368e+01 2.699606e+00 1.137829e+02 1.508873e+01 3.758692e+01 2.796102e+02 2.123595e+01 3.452909e+01 1.412847e+02 2.007687e+01 2.242424e+01 2.827544e+02 2.128072e+01 7.859873e+00 1.234564e+02 1.773036e+00 4.941725e+01 2.930290e+02 6.458654e+00 3.972525e+01 1.470819e+02 -1.150462e+01
5.420734e+01 1.037030e+02 1.735019e+01 1.542948e+01 3.675659e+01 1.353345e+01 4.174985e+01 1.007289e+02 1.100804e+01 9.583071e+00 -2.241556e+00 6.514827e+00 6.302532e+01 1.618927e+02 3.749934e+01 2.024514e+01 7.645721e+01 2.964451e+01 5.478548e+01 1.338190e+02 3.592899e+01 1.563201e+01 2.042367e+01 2.353421e+01
6.306514e+01 3.180111e+02 -8.776602e+00 2.046794e+01 1.876328e+02 -7.787613e+00 3.223088e+01 3.050885e+02 -1.873815e+01 7.598843e+00 1.351296e+02 -1.068983e+01 6.599271e+01 3.723761e+02 1.525186e+01 2.137355e+01 2.091555e+02 9.941518e+00 3.190698e+01 3.621614e+02 3.168989e+00 6.947842e+00 1.545815e+02 4.185797e+00
4.379075e+01 2.356922e+02 8.630238e+00 1.731251e+01 3.475037e+02 -6.769976e+00 4.381380e+00 1.532003e+02 1.249519e+01 -3.556789e+00 1.976965e+02 -8.435138e-01 4.727469e+01 3.157603e+02 1.297821e+01 1.975371e+01 4.331437e+02 -7.289221e+00 7.261336e+00 2.019021e+02 1.399962e+01 -5.605315e-01 2.408513e+02 -1.065128e+00
-2.299060e+01 -1.754922e+02 1.962818e+01 -1.278029e+01 -1.109992e+02 1.151560e+01 -3.768555e+01 -1.549863e+02 5.202453e+00 -2.157375e+01 -9.427527e+01 4.281174e+00 -2.068222e+01 -1.650308e+02 2.993584e+01 -1.121380e+01 -1.082568e+02 1.032261e+01 -3.343993e+01 -1.349803e+02 1.963933e+01 -1.899189e+01 -8.608294e+01 -2.845975e+00
6.866330e+00 -1.538589e+02 1.934154e+01 -1.777587e+00 -8.484975e+01 9.223223e+00 -2.783346e+00 -1.835963e+02 2.252054e+01 -4.606506e+00 -1.082035e+02 1.136829e+01 1.003238e+01 -1.635691e+02 1.675439e+01 -4.646422e-01 -9.022928e+01 8.730956e+00 -1.690416e+00 -1.845769e+02 3.066811e+01 -3.379916e+00 -1.091668e+02 1.820814e+01
-3.419287e+01 -8.072180e+01 -1.264187e+00 -2.119068e+01 4.411686e+01 5.675937e+00 4.492057e+00 -1.329073e+01 1.380506e+00 9.903981e+00 4.823942e+01 1.066890e+01 -3.231020e+01 -6.523268e+01 3.680890e+01 -2.344336e+01 5.139220e+01 2.176675e+01 1.726399e+00 -7.671972e+00 9.918454e+00 7.576275e+00 5.223709e+01 -7.052315e+00
-4.482103e+01 -6.889745e+01 1.059580e+01 -9.543804e+01 -3.869473e+01 -1.523611e+00 -6.714582e+01 -1.440870e+02 5.143866e+00 -9.471135e+01 -3.308871e+01 -1.796177e+00 -3.767017e+01 -6.286811e+01 -3.959772e+01 -8.791333e+01 -3.620186e+01 -1.925194e+01 -5.683121e+01 -1.297665e+02 -5.556094e-01 -8.836412e+01 -2.780466e+01 1.466426e+01
-3.081092e+01 -6.201761e+01 1.798435e+01 -5.020058e+01 -1.073962e+02 5.208842e+00 -2.977213e+01 -9.661577e+01 1.388580e+01 -4.084879e+01 -1.437970e+02 2.621292e+00 -2.415594e+01 -4.978263e+01 -4.421676e+01 -3.917675e+01 -8.479479e+01 -7.412904e+00 -2.439494e+01 -8.373725e+01 -3.520710e+01 -3.171300e+01 -1.182697e+02 -2.935949e+00
-5.453592e-01 3.285024e+02 -1.311910e+01 4.875280e+00 1.285343e+02 -6.736346e+00 -5.399712e+01 3.838453e+02 -6.468408e+00 -1.269941e+01 1.810708e+02 -1.825199e-01 -2.376397e+00 3.812205e+02 -1.501148e+01 4.532603e+00 1.474623e+02 -3.919992e+00 -5.916613e+01 4.320474e+02 -3.643766e+01 -1.470507e+01 2.013401e+02 -2.002028e+01
-2.699149e+01 4.647800e+02 -1.603513e+01 -5.448586e+01 4.962722e+02 -1.895703e+01 -2.753774e+01 2.527692e+02 -1.043239e+01 -3.028777e+01 2.996144e+02 -1.553519e+01 -2.871459e+01 5.452979e+02 -3.056232e+01 -5.960594e+01 5.646134e+02 -4.014344e+01 -2.848781e+01 2.945642e+02 -2.042272e+01 -3.288170e+01 3.425674e+02 -2.958358e+01
2.385788e+01 -2.214203e+02 7.138852e+01 2.196758e+01 -2.452514e+02 3.484465e+01 4.379300e+01 -2.778382e+02 7.219410e+01 2.089548e+01 -3.178634e+02 3.953820e+01 3.869418e+01 -2.690265e+02 1.732663e+01 3.585452e+01 -3.084186e+02 4.741403e+01 6.180370e+01 -3.315390e+02 1.935031e+01 3.638377e+01 -3.876502e+02 5.519056e+01
-3.656509e+00 -1.289028e+02 1.455637e+01 -5.812439e+00 -2.153129e+01 -9.708206e+00 2.238744e+01 -8.470129e+01 3.709364e+01 3.721570e+00 -1.608470e+01 1.133031e+01 7.640957e+00 -1.737438e+02 5.566751e+01 -2.264631e+00 -3.509698e+01 3.741828e+01 3.807251e+01 -1.110291e+02 2.098578e+01 9.882066e+00 -2.336381e+01 1.849254e+01
2.272841e+01 -1.569078e+02 -4.978732e+01 1.437687e+01 -5.481961e+01 -6.382723e+01 -8.749149e+00 -1.874569e+02 -3.442984e+01 -1.487175e+00 -5.215749e+01 -5.124646e+01 3.972225e+01 -2.158313e+02 2.606084e+01 2.756041e+01 -8.547941e+01 -1.540069e+01 1.874760e+00 -2.477137e+02 5.364825e+01 3.840310e+00 -7.596368e+01 9.103856e+00
2.900245e+01 -2.321835e+01 2.348833e+01 -2.031176e+00 -2.091217e+01 4.951398e+01 4.146121e+01 2.294830e+01 1.485951e+01 1.249629e+01 6.969086e+00 3.391541e+01 3.987132e+01 -6.743967e+01 2.685306e+01 4.978514e+00 -4.138398e+01 1.639544e+01 5.183452e+01 -1.376771e+01 1.705505e+01 1.540094e+01 -9.026119e+00 1.685471e+01
4.357295e+01 -1.401980e+01 -4.304500e+01 3.821166e+01 2.217314e+01 -3.119868e+01 2.480266e+01 -7.671311e+00 -5.423076e+01 2.116456e+01 7.891539e+00 -4.064961e+01 6.631959e+01 -5.425298e+01 -8.535429e+00 6.230640e+01 -1.063916e+01 -1.290512e+01 4.197442e+01 -2.520051e+01 -2.168969e+01 3.858224e+01 -4.901726e+00 -2.126710e+01
4.899257e+01 2.852250e+01 1.209380e+01 2.536928e+01 1.733902e+01 1.515362e+01 5.010685e+01 7.457794e+01 8.981875e+00 3.104212e+01 4.397397e+01 2.997720e+00 5.616652e+01 9.001670e+00 1.201312e+01 2.385547e+01 9.095856e+00 1.254289e+01 5.575315e+01 7.485729e+01 1.201380e+01 3.127788e+01 4.473669e+01 1.070323e+01
4.850661e+01 2.306100e+01 -1.200097e+01 6.460061e+01 6.335614e+01 6.423614e+00 2.685162e+01 1.073643e+01 -1.273392e+01 4.872855e+01 3.571627e+01 5.784739e+00 6.801549e+01 6.612864e+00 -9.891990e+00 8.025072e+01 6.539256e+01 -4.833470e+00 4.337082e+01 6.029153e+00 -1.238472e+01 5.829487e+01 3.679357e+01 -1.038797e+01
4.599146e+01 -1.639605e+02 5.532994e+01 3.470347e+01 -1.300571e+02 3.676645e+01 2.639089e+01 -1.191477e+02 5.148575e+01 2.407760e+01 -8.635517e+01 3.615977e+01 5.915618e+01 -1.932553e+02 5.677727e-01 4.347611e+01 -1.480210e+02 8.152639e+00 3.424435e+01 -1.436814e+02 -4.676423e+00 2.928617e+01 -1.014274e+02 1.132249e+00
3.156644e+01 -7.740273e+01 3.509671e+01 7.041231e+00 -2.636149e+01 1.834236e+01 2.043558e+01 -1.009604e+02 2.028379e+01 4.153935e+00 -4.701970e+01 9.631678e+00 4.203077e+01 -9.268369e+01 -3.765783e+00 1.124755e+01 -3.229066e+01 -3.586947e+00 2.695135e+01 -1.151515e+02 4.143881e+00 6.565573e+00 -5.408592e+01 1.068420e-01
4.634243e+00 7.752539e+01 2.250449e+00 -1.756683e+01 1.220302e+02 -1.495987e+01 -8.357863e+00 7.349877e+01 -1.046015e+01 -3.472640e+01 1.166769e+02 -2.083588e+01 -2.872433e+00 6.014418e+01 -5.506910e+00 -2.048540e+01 9.520247e+01 -1.855206e+01 -1.511297e+01 4.478090e+01 -1.879989e+01 -3.660198e+01 7.208880e+01 -2.508390e+01
6.959541e+00 8.772826e+01 1.531230e+01 1.621591e+01 6.513108e+01 1.710054e+01 1.521545e+01 6.496958e+01 8.602814e+00 1.369576e+01 4.619427e+01 6.097374e+00 6.560129e+00 7.066800e+01 2.750478e+01 9.552216e+00 5.325222e+01 1.853848e+01 1.130759e+01 4.781365e+01 1.563078e+01 7.558521e+00 3.168984e+01 1.914252e+00
-6.342785e+01 1.680739e+02 -9.151376e+00 -7.032148e+01 1.112166e+02 -4.618390e+00 -5.610674e+01 2.952169e+02 -2.202617e+01 -6.958324e+01 2.108901e+02 -1.900233e+01 -8.289785e+01 2.018368e+02 2.862162e+01 -9.229801e+01 1.561614e+02 2.992566e+01 -7.655173e+01 3.413856e+02 1.045876e+01 -9.346619e+01 2.587791e+02 1.782020e+01
-5.303965e+01 2.239191e+02 -2.788048e+01 -1.951994e+01 1.115997e+02 -1.666207e+01 -3.507186e+01 3.043023e+02 -3.338586e+01 -1.684682e+01 1.574084e+02 -2.262359e+01 -7.249284e+01 2.714650e+02 -3.262430e+00 -2.755977e+01 1.368124e+02 -7.063098e+00 -5.345817e+01 3.570261e+02 -1.796245e+01 -2.517379e+01 1.896403e+02 -1.764706e+01
-6.016563e+01 8.449293e+01 -8.034140e+00 -3.039067e+01 4.929782e+01 -6.055577e+00 -5.231695e+01 1.525882e+02 -1.717970e+01 -2.466828e+01 7.689651e+01 -6.771326e+00 -7.731778e+01 1.271568e+02 -1.860148e+01 -3.707453e+01 6.941027e+01 -4.560706e+01 -7.013997e+01 1.934356e+02 -8.525426e+00 -3.153481e+01 9.510568e+01 -2.903252e+01