# vtk DataFile Version 2.0
Simplicial Mesh Example
ASCII
DATASET UNSTRUCTURED_GRID
POINTS 8 double
-5.000000e-01 -5.000000e-01 5.000000e-01
-5.000000e-01 -5.000000e-01 -5.000000e-01
-5.000000e-01 5.000000e-01 -5.000000e-01
-5.000000e-01 5.000000e-01 5.000000e-01
5.000000e-01 -5.000000e-01 5.000000e-01
5.000000e-01 -5.000000e-01 -5.000000e-01
5.000000e-01 5.000000e-01 -5.000000e-01
5.000000e-01 5.000000e-01 5.000000e-01
CELLS 1 9
8  0 1 2 3 4 5 6 7
CELL_TYPES 1
12
POINT_DATA 8
VECTORS Vec_0x84000000_7 double
1.496403e-18 -1.524114e-18 -3.112930e-04
1.250000e-01 1.250000e-01 1.250000e-01
-1.250000e-01 -1.250000e-01 -1.250000e-01
1.250000e-01 1.250000e-01 1.250000e-01
-1.250000e-01 -1.250000e-01 -1.250000e-01
-1.250000e-01 -1.250000e-01 -1.250000e-01
1.250000e-01 1.250000e-01 1.250000e-01
-1.250000e-01 -1.250000e-01 -1.250000e-01
1.250000e-01 1.250000e-01 1.250000e-01
