# vtk DataFile Version 2.0
Simplicial Mesh Example
ASCII
DATASET UNSTRUCTURED_GRID
POINTS 1000 double
6.322560e-01 -3.266544e-01 -4.583333e+00
5.544030e-01 -5.564805e-01 -4.583333e+00
3.249412e-01 -6.324994e-01 -4.583333e+00
3.535534e-01 -3.535534e-01 -4.583333e+00
6.322560e-01 -3.266544e-01 -5.000000e+00
5.544030e-01 -5.564805e-01 -5.000000e+00
3.249412e-01 -6.324994e-01 -5.000000e+00
3.535534e-01 -3.535534e-01 -5.000000e+00
7.066062e-01 -3.951136e-04 -4.583333e+00
5.000000e-01 0.000000e+00 -4.583333e+00
7.066062e-01 -3.951136e-04 -5.000000e+00
5.000000e-01 0.000000e+00 -5.000000e+00
-3.535534e-01 -3.535534e-01 -4.583333e+00
-3.252367e-01 -6.315586e-01 -4.583333e+00
-5.553555e-01 -5.550375e-01 -4.583333e+00
-6.317992e-01 -3.251676e-01 -4.583333e+00
-3.535534e-01 -3.535534e-01 -5.000000e+00
-3.252367e-01 -6.315586e-01 -5.000000e+00
-5.553555e-01 -5.550375e-01 -5.000000e+00
-6.317992e-01 -3.251676e-01 -5.000000e+00
-7.071068e-01 -7.071068e-01 -4.583333e+00
-9.238795e-01 -3.826834e-01 -4.583333e+00
-7.071068e-01 -7.071068e-01 -5.000000e+00
-9.238795e-01 -3.826834e-01 -5.000000e+00
-3.826834e-01 -9.238795e-01 -4.583333e+00
-3.826834e-01 -9.238795e-01 -5.000000e+00
-9.184851e-17 -5.000000e-01 -4.583333e+00
1.225715e-04 -7.062088e-01 -4.583333e+00
-9.184851e-17 -5.000000e-01 -5.000000e+00
1.225715e-04 -7.062088e-01 -5.000000e+00
6.123234e-17 -1.000000e+00 -4.583333e+00
6.123234e-17 -1.000000e+00 -5.000000e+00
-3.535534e-01 3.535534e-01 -4.583333e+00
-6.317455e-01 3.254141e-01 -4.583333e+00
-5.546801e-01 5.548152e-01 -4.583333e+00
-3.251881e-01 6.319248e-01 -4.583333e+00
-3.535534e-01 3.535534e-01 -5.000000e+00
-6.317455e-01 3.254141e-01 -5.000000e+00
-5.546801e-01 5.548152e-01 -5.000000e+00
-3.251881e-01 6.319248e-01 -5.000000e+00
-7.071068e-01 7.071068e-01 -4.583333e+00
-3.826834e-01 9.238795e-01 -4.583333e+00
-7.071068e-01 7.071068e-01 -5.000000e+00
-3.826834e-01 9.238795e-01 -5.000000e+00
-9.238795e-01 3.826834e-01 -4.583333e+00
-9.238795e-01 3.826834e-01 -5.000000e+00
-5.000000e-01 6.123234e-17 -4.583333e+00
-7.068175e-01 -7.279229e-05 -4.583333e+00
-5.000000e-01 6.123234e-17 -5.000000e+00
-7.068175e-01 -7.279229e-05 -5.000000e+00
-1.000000e+00 5.665539e-16 -4.583333e+00
-1.000000e+00 -1.224647e-16 -5.000000e+00
9.238795e-01 -3.826834e-01 -4.583333e+00
7.071068e-01 -7.071068e-01 -4.583333e+00
9.238795e-01 -3.826834e-01 -5.000000e+00
7.071068e-01 -7.071068e-01 -5.000000e+00
1.000000e+00 0.000000e+00 -4.583333e+00
1.000000e+00 0.000000e+00 -5.000000e+00
3.826834e-01 -9.238795e-01 -4.583333e+00
3.826834e-01 -9.238795e-01 -5.000000e+00
3.535534e-01 3.535534e-01 -4.583333e+00
3.251191e-01 6.316272e-01 -4.583333e+00
5.548077e-01 5.547357e-01 -4.583333e+00
6.316523e-01 3.249658e-01 -4.583333e+00
3.535534e-01 3.535534e-01 -5.000000e+00
3.251191e-01 6.316272e-01 -5.000000e+00
5.548077e-01 5.547357e-01 -5.000000e+00
6.316523e-01 3.249658e-01 -5.000000e+00
7.071068e-01 7.071068e-01 -4.583333e+00
9.238795e-01 3.826834e-01 -4.583333e+00
7.071068e-01 7.071068e-01 -5.000000e+00
9.238795e-01 3.826834e-01 -5.000000e+00
3.826834e-01 9.238795e-01 -4.583333e+00
3.826834e-01 9.238795e-01 -5.000000e+00
1.530808e-16 5.000000e-01 -4.583333e+00
-1.951623e-05 7.068888e-01 -4.583333e+00
3.061617e-17 5.000000e-01 -5.000000e+00
-1.951623e-05 7.068888e-01 -5.000000e+00
-2.603303e-15 1.000000e+00 -4.583333e+00
-1.836970e-16 1.000000e+00 -5.000000e+00
6.322560e-01 -3.266544e-01 -4.166667e+00
5.544030e-01 -5.564805e-01 -4.166667e+00
3.249412e-01 -6.324994e-01 -4.166667e+00
3.535534e-01 -3.535534e-01 -4.166667e+00
7.066062e-01 -3.951136e-04 -4.166667e+00
5.000000e-01 0.000000e+00 -4.166667e+00
-3.535534e-01 -3.535534e-01 -4.166667e+00
-3.252367e-01 -6.315586e-01 -4.166667e+00
-5.553555e-01 -5.550375e-01 -4.166667e+00
-6.317992e-01 -3.251676e-01 -4.166667e+00
-7.071068e-01 -7.071068e-01 -4.166667e+00
-9.238795e-01 -3.826834e-01 -4.166667e+00
-3.826834e-01 -9.238795e-01 -4.166667e+00
1.240419e-15 -5.000000e-01 -4.166667e+00
1.225715e-04 -7.062088e-01 -4.166667e+00
6.123234e-17 -1.000000e+00 -4.166667e+00
-3.535534e-01 3.535534e-01 -4.166667e+00
-6.317455e-01 3.254141e-01 -4.166667e+00
-5.546801e-01 5.548152e-01 -4.166667e+00
-3.251881e-01 6.319248e-01 -4.166667e+00
-7.071068e-01 7.071068e-01 -4.166667e+00
-3.826834e-01 9.238795e-01 -4.166667e+00
-9.238795e-01 3.826834e-01 -4.166667e+00
-5.000000e-01 6.123234e-17 -4.166667e+00
-7.068175e-01 -7.279229e-05 -4.166667e+00
-1.000000e+00 -1.224647e-16 -4.166667e+00
9.238795e-01 -3.826834e-01 -4.166667e+00
7.071068e-01 -7.071068e-01 -4.166667e+00
1.000000e+00 0.000000e+00 -4.166667e+00
3.826834e-01 -9.238795e-01 -4.166667e+00
3.535534e-01 3.535534e-01 -4.166667e+00
3.251191e-01 6.316272e-01 -4.166667e+00
5.548077e-01 5.547357e-01 -4.166667e+00
6.316523e-01 3.249658e-01 -4.166667e+00
7.071068e-01 7.071068e-01 -4.166667e+00
9.238795e-01 3.826834e-01 -4.166667e+00
3.826834e-01 9.238795e-01 -4.166667e+00
1.530808e-16 5.000000e-01 -4.166667e+00
-1.951623e-05 7.068888e-01 -4.166667e+00
-8.269461e-16 1.000000e+00 -4.166667e+00
6.322560e-01 -3.266544e-01 -3.750000e+00
5.544030e-01 -5.564805e-01 -3.750000e+00
3.249412e-01 -6.324994e-01 -3.750000e+00
3.535534e-01 -3.535534e-01 -3.750000e+00
7.066062e-01 -3.951136e-04 -3.750000e+00
5.000000e-01 0.000000e+00 -3.750000e+00
-3.535534e-01 -3.535534e-01 -3.750000e+00
-3.252367e-01 -6.315586e-01 -3.750000e+00
-5.553555e-01 -5.550375e-01 -3.750000e+00
-6.317992e-01 -3.251676e-01 -3.750000e+00
-7.071068e-01 -7.071068e-01 -3.750000e+00
-9.238795e-01 -3.826834e-01 -3.750000e+00
-3.826834e-01 -9.238795e-01 -3.750000e+00
-9.184851e-17 -5.000000e-01 -3.750000e+00
1.225715e-04 -7.062088e-01 -3.750000e+00
6.123234e-17 -1.000000e+00 -3.750000e+00
-3.535534e-01 3.535534e-01 -3.750000e+00
-6.317455e-01 3.254141e-01 -3.750000e+00
-5.546801e-01 5.548152e-01 -3.750000e+00
-3.251881e-01 6.319248e-01 -3.750000e+00
-7.071068e-01 7.071068e-01 -3.750000e+00
-3.826834e-01 9.238795e-01 -3.750000e+00
-9.238795e-01 3.826834e-01 -3.750000e+00
-5.000000e-01 6.123234e-17 -3.750000e+00
-7.068175e-01 -7.279229e-05 -3.750000e+00
-1.000000e+00 1.010643e-15 -3.750000e+00
9.238795e-01 -3.826834e-01 -3.750000e+00
7.071068e-01 -7.071068e-01 -3.750000e+00
1.000000e+00 0.000000e+00 -3.750000e+00
3.826834e-01 -9.238795e-01 -3.750000e+00
3.535534e-01 3.535534e-01 -3.750000e+00
3.251191e-01 6.316272e-01 -3.750000e+00
5.548077e-01 5.547357e-01 -3.750000e+00
6.316523e-01 3.249658e-01 -3.750000e+00
7.071068e-01 7.071068e-01 -3.750000e+00
9.238795e-01 3.826834e-01 -3.750000e+00
3.826834e-01 9.238795e-01 -3.750000e+00
1.530808e-16 5.000000e-01 -3.750000e+00
-1.951623e-05 7.068888e-01 -3.750000e+00
6.123234e-17 1.000000e+00 -3.750000e+00
6.322560e-01 -3.266544e-01 -3.333333e+00
5.544030e-01 -5.564805e-01 -3.333333e+00
3.249412e-01 -6.324994e-01 -3.333333e+00
3.535534e-01 -3.535534e-01 -3.333333e+00
7.066062e-01 -3.951136e-04 -3.333333e+00
5.000000e-01 0.000000e+00 -3.333333e+00
-3.535534e-01 -3.535534e-01 -3.333333e+00
-3.252367e-01 -6.315586e-01 -3.333333e+00
-5.553555e-01 -5.550375e-01 -3.333333e+00
-6.317992e-01 -3.251676e-01 -3.333333e+00
-7.071068e-01 -7.071068e-01 -3.333333e+00
-9.238795e-01 -3.826834e-01 -3.333333e+00
-3.826834e-01 -9.238795e-01 -3.333333e+00
-9.184851e-17 -5.000000e-01 -3.333333e+00
1.225715e-04 -7.062088e-01 -3.333333e+00
6.123234e-17 -1.000000e+00 -3.333333e+00
-3.535534e-01 3.535534e-01 -3.333333e+00
-6.317455e-01 3.254141e-01 -3.333333e+00
-5.546801e-01 5.548152e-01 -3.333333e+00
-3.251881e-01 6.319248e-01 -3.333333e+00
-7.071068e-01 7.071068e-01 -3.333333e+00
-3.826834e-01 9.238795e-01 -3.333333e+00
-9.238795e-01 3.826834e-01 -3.333333e+00
-5.000000e-01 6.123234e-17 -3.333333e+00
-7.068175e-01 -7.279229e-05 -3.333333e+00
-1.000000e+00 -1.224647e-16 -3.333333e+00
9.238795e-01 -3.826834e-01 -3.333333e+00
7.071068e-01 -7.071068e-01 -3.333333e+00
1.000000e+00 0.000000e+00 -3.333333e+00
3.826834e-01 -9.238795e-01 -3.333333e+00
3.535534e-01 3.535534e-01 -3.333333e+00
3.251191e-01 6.316272e-01 -3.333333e+00
5.548077e-01 5.547357e-01 -3.333333e+00
6.316523e-01 3.249658e-01 -3.333333e+00
7.071068e-01 7.071068e-01 -3.333333e+00
9.238795e-01 3.826834e-01 -3.333333e+00
3.826834e-01 9.238795e-01 -3.333333e+00
1.530808e-16 5.000000e-01 -3.333333e+00
-1.951623e-05 7.068888e-01 -3.333333e+00
-8.269461e-16 1.000000e+00 -3.333333e+00
6.322560e-01 -3.266544e-01 -2.916667e+00
5.544030e-01 -5.564805e-01 -2.916667e+00
3.249412e-01 -6.324994e-01 -2.916667e+00
3.535534e-01 -3.535534e-01 -2.916667e+00
7.066062e-01 -3.951136e-04 -2.916667e+00
5.000000e-01 0.000000e+00 -2.916667e+00
-3.535534e-01 -3.535534e-01 -2.916667e+00
-3.252367e-01 -6.315586e-01 -2.916667e+00
-5.553555e-01 -5.550375e-01 -2.916667e+00
-6.317992e-01 -3.251676e-01 -2.916667e+00
-7.071068e-01 -7.071068e-01 -2.916667e+00
-9.238795e-01 -3.826834e-01 -2.916667e+00
-3.826834e-01 -9.238795e-01 -2.916667e+00
-9.184851e-17 -5.000000e-01 -2.916667e+00
1.225715e-04 -7.062088e-01 -2.916667e+00
6.123234e-17 -1.000000e+00 -2.916667e+00
-3.535534e-01 3.535534e-01 -2.916667e+00
-6.317455e-01 3.254141e-01 -2.916667e+00
-5.546801e-01 5.548152e-01 -2.916667e+00
-3.251881e-01 6.319248e-01 -2.916667e+00
-7.071068e-01 7.071068e-01 -2.916667e+00
-3.826834e-01 9.238795e-01 -2.916667e+00
-9.238795e-01 3.826834e-01 -2.916667e+00
-5.000000e-01 6.123234e-17 -2.916667e+00
-7.068175e-01 -7.279229e-05 -2.916667e+00
-1.000000e+00 -1.224647e-16 -2.916667e+00
9.238795e-01 -3.826834e-01 -2.916667e+00
7.071068e-01 -7.071068e-01 -2.916667e+00
1.000000e+00 0.000000e+00 -2.916667e+00
3.826834e-01 -9.238795e-01 -2.916667e+00
3.535534e-01 3.535534e-01 -2.916667e+00
3.251191e-01 6.316272e-01 -2.916667e+00
5.548077e-01 5.547357e-01 -2.916667e+00
6.316523e-01 3.249658e-01 -2.916667e+00
7.071068e-01 7.071068e-01 -2.916667e+00
9.238795e-01 3.826834e-01 -2.916667e+00
3.826834e-01 9.238795e-01 -2.916667e+00
1.530808e-16 5.000000e-01 -2.916667e+00
-1.951623e-05 7.068888e-01 -2.916667e+00
6.123234e-17 1.000000e+00 -2.916667e+00
6.322560e-01 -3.266544e-01 -2.500000e+00
[...]
POINT_DATA 1000
SCALARS Vec_0x84000000_4PetscFE_0x84000000_3 double 81
LOOKUP_TABLE default
0.000000e+00 0.000000e+00 0.000000e+00 0.000000e+00 0.000000e+00 0.000000e+00 0.000000e+00 0.000000e+00 0.000000e+00 0.000000e+00 0.000000e+00 0.000000e+00 0.000000e+00 0.000000e+00 0.000000e+00 0.000000e+00 0.000000e+00 0.000000e+00 0.000000e+00 0.000000e+00 0.000000e+00 0.000000e+00 0.000000e+00 0.000000e+00 0.000000e+00 0.000000e+00 0.000000e+00 0.000000e+00 0.000000e+00 0.000000e+00 0.000000e+00 0.000000e+00 0.000000e+00 0.000000e+00 0.000000e+00 0.000000e+00 0.000000e+00 0.000000e+00 0.000000e+00 0.000000e+00 0.000000e+00 0.000000e+00 0.000000e+00 0.000000e+00 0.000000e+00 0.000000e+00 0.000000e+00 0.000000e+00 0.000000e+00 0.000000e+00 0.000000e+00 0.000000e+00 0.000000e+00 0.000000e+00 0.000000e+00 0.000000e+00 0.000000e+00 0.000000e+00 0.000000e+00 0.000000e+00 0.000000e+00 0.000000e+00 0.000000e+00 0.000000e+00 0.000000e+00 0.000000e+00 0.000000e+00 0.000000e+00 0.000000e+00 0.000000e+00 0.000000e+00 0.000000e+00 0.000000e+00 0.000000e+00 0.000000e+00 0.000000e+00 0.000000e+00 0.000000e+00 0.000000e+00 0.000000e+00 0.000000e+00
0.000000e+00 0.000000e+00 0.000000e+00 0.000000e+00 0.000000e+00 0.000000e+00 0.000000e+00 0.000000e+00 0.000000e+00 0.000000e+00 0.000000e+00 0.000000e+00 0.000000e+00 0.000000e+00 0.000000e+00 0.000000e+00 0.000000e+00 0.000000e+00 0.000000e+00 0.000000e+00 0.000000e+00 0.000000e+00 0.000000e+00 0.000000e+00 0.000000e+00 0.000000e+00 0.000000e+00 0.000000e+00 0.000000e+00 0.000000e+00 0.000000e+00 0.000000e+00 0.000000e+00 0.000000e+00 0.000000e+00 0.000000e+00 0.000000e+00 0.000000e+00 0.000000e+00 0.000000e+00 0.000000e+00 0.000000e+00 0.000000e+00 0.000000e+00 0.000000e+00 0.000000e+00 0.000000e+00 0.000000e+00 0.000000e+00 0.000000e+00 0.000000e+00 0.000000e+00 0.000000e+00 0.000000e+00 0.000000e+00 0.000000e+00 0.000000e+00 0.000000e+00 0.000000e+00 0.000000e+00 0.000000e+00 0.000000e+00 0.000000e+00 0.000000e+00 0.000000e+00 0.000000e+00 0.000000e+00 0.000000e+00 0.000000e+00 0.000000e+00 0.000000e+00 0.000000e+00 0.000000e+00 0.000000e+00 0.000000e+00 0.000000e+00 0.000000e+00 0.000000e+00 0.000000e+00 0.000000e+00 0.000000e+00
0.000000e+00 0.000000e+00 0.000000e+00 0.000000e+00 0.000000e+00 0.000000e+00 0.000000e+00 0.000000e+00 0.000000e+00 0.000000e+00 0.000000e+00 0.000000e+00 0.000000e+00 0.000000e+00 0.000000e+00 0.000000e+00 0.000000e+00 0.000000e+00 0.000000e+00 0.000000e+00 0.000000e+00 0.000000e+00 0.000000e+00 0.000000e+00 0.000000e+00 0.000000e+00 0.000000e+00 0.000000e+00 0.000000e+00 0.000000e+00 0.000000e+00 0.000000e+00 0.000000e+00 0.000000e+00 0.000000e+00 0.000000e+00 0.000000e+00 0.000000e+00 0.000000e+00 0.000000e+00 0.000000e+00 0.000000e+00 0.000000e+00 0.000000e+00 0.000000e+00 0.000000e+00 0.000000e+00 0.000000e+00 0.000000e+00 0.000000e+00 0.000000e+00 0.000000e+00 0.000000e+00 0.000000e+00 0.000000e+00 0.000000e+00 0.000000e+00 0.000000e+00 0.000000e+00 0.000000e+00 0.000000e+00 0.000000e+00 0.000000e+00 0.000000e+00 0.000000e+00 0.000000e+00 0.000000e+00 0.000000e+00 0.000000e+00 0.000000e+00 0.000000e+00 0.000000e+00 0.000000e+00 0.000000e+00 0.000000e+00 0.000000e+00 0.000000e+00 0.000000e+00 0.000000e+00 0.000000e+00 0.000000e+00
0.000000e+00 0.000000e+00 0.000000e+00 0.000000e+00 0.000000e+00 0.000000e+00 0.000000e+00 0.000000e+00 0.000000e+00 0.000000e+00 0.000000e+00 0.000000e+00 0.000000e+00 0.000000e+00 0.000000e+00 0.000000e+00 0.000000e+00 0.000000e+00 0.000000e+00 0.000000e+00 0.000000e+00 0.000000e+00 0.000000e+00 0.000000e+00 0.000000e+00 0.000000e+00 0.000000e+00 0.000000e+00 0.000000e+00 0.000000e+00 0.000000e+00 0.000000e+00 0.000000e+00 0.000000e+00 0.000000e+00 0.000000e+00 0.000000e+00 0.000000e+00 0.000000e+00 0.000000e+00 0.000000e+00 0.000000e+00 0.000000e+00 0.000000e+00 0.000000e+00 0.000000e+00 0.000000e+00 0.000000e+00 0.000000e+00 0.000000e+00 0.000000e+00 0.000000e+00 0.000000e+00 0.000000e+00 0.000000e+00 0.000000e+00 0.000000e+00 0.000000e+00 0.000000e+00 0.000000e+00 0.000000e+00 0.000000e+00 0.000000e+00 0.000000e+00 0.000000e+00 0.000000e+00 0.000000e+00 0.000000e+00 0.000000e+00 0.000000e+00 0.000000e+00 0.000000e+00 0.000000e+00 0.000000e+00 0.000000e+00 0.000000e+00 0.000000e+00 0.000000e+00 0.000000e+00 0.000000e+00 0.000000e+00
0.000000e+00 0.000000e+00 0.000000e+00 0.000000e+00 0.000000e+00 0.000000e+00 0.000000e+00 0.000000e+00 0.000000e+00 0.000000e+00 0.000000e+00 0.000000e+00 0.000000e+00 0.000000e+00 0.000000e+00 0.000000e+00 0.000000e+00 0.000000e+00 0.000000e+00 0.000000e+00 0.000000e+00 0.000000e+00 0.000000e+00 0.000000e+00 0.000000e+00 0.000000e+00 0.000000e+00 0.000000e+00 0.000000e+00 0.000000e+00 0.000000e+00 0.000000e+00 0.000000e+00 0.000000e+00 0.000000e+00 0.000000e+00 0.000000e+00 0.000000e+00 0.000000e+00 0.000000e+00 0.000000e+00 0.000000e+00 0.000000e+00 0.000000e+00 0.000000e+00 0.000000e+00 0.000000e+00 0.000000e+00 0.000000e+00 0.000000e+00 0.000000e+00 0.000000e+00 0.000000e+00 0.000000e+00 0.000000e+00 0.000000e+00 0.000000e+00 0.000000e+00 0.000000e+00 0.000000e+00 0.000000e+00 0.000000e+00 0.000000e+00 0.000000e+00 0.000000e+00 0.000000e+00 0.000000e+00 0.000000e+00 0.000000e+00 0.000000e+00 0.000000e+00 0.000000e+00 0.000000e+00 0.000000e+00 0.000000e+00 0.000000e+00 0.000000e+00 0.000000e+00 0.000000e+00 0.000000e+00 0.000000e+00
0.000000e+00 0.000000e+00 0.000000e+00 0.000000e+00 0.000000e+00 0.000000e+00 0.000000e+00 0.000000e+00 0.000000e+00 0.000000e+00 0.000000e+00 0.000000e+00 0.000000e+00 0.000000e+00 0.000000e+00 0.000000e+00 0.000000e+00 0.000000e+00 0.000000e+00 0.000000e+00 0.000000e+00 0.000000e+00 0.000000e+00 0.000000e+00 0.000000e+00 0.000000e+00 0.000000e+00 0.000000e+00 0.000000e+00 0.000000e+00 0.000000e+00 0.000000e+00 0.000000e+00 0.000000e+00 0.000000e+00 0.000000e+00 0.000000e+00 0.000000e+00 0.000000e+00 0.000000e+00 0.000000e+00 0.000000e+00 0.000000e+00 0.000000e+00 0.000000e+00 0.000000e+00 0.000000e+00 0.000000e+00 0.000000e+00 0.000000e+00 0.000000e+00 0.000000e+00 0.000000e+00 0.000000e+00 0.000000e+00 0.000000e+00 0.000000e+00 0.000000e+00 0.000000e+00 0.000000e+00 0.000000e+00 0.000000e+00 0.000000e+00 0.000000e+00 0.000000e+00 0.000000e+00 0.000000e+00 0.000000e+00 0.000000e+00 0.000000e+00 0.000000e+00 0.000000e+00 0.000000e+00 0.000000e+00 0.000000e+00 0.000000e+00 0.000000e+00 0.000000e+00 0.000000e+00 0.000000e+00 0.000000e+00
0.000000e+00 0.000000e+00 0.000000e+00 0.000000e+00 0.000000e+00 0.000000e+00 0.000000e+00 0.000000e+00 0.000000e+00 0.000000e+00 0.000000e+00 0.000000e+00 0.000000e+00 0.000000e+00 0.000000e+00 0.000000e+00 0.000000e+00 0.000000e+00 0.000000e+00 0.000000e+00 0.000000e+00 0.000000e+00 0.000000e+00 0.000000e+00 0.000000e+00 0.000000e+00 0.000000e+00 0.000000e+00 0.000000e+00 0.000000e+00 0.000000e+00 0.000000e+00 0.000000e+00 0.000000e+00 0.000000e+00 0.000000e+00 0.000000e+00 0.000000e+00 0.000000e+00 0.000000e+00 0.000000e+00 0.000000e+00 0.000000e+00 0.000000e+00 0.000000e+00 0.000000e+00 0.000000e+00 0.000000e+00 0.000000e+00 0.000000e+00 0.000000e+00 0.000000e+00 0.000000e+00 0.000000e+00 0.000000e+00 0.000000e+00 0.000000e+00 0.000000e+00 0.000000e+00 0.000000e+00 0.000000e+00 0.000000e+00 0.000000e+00 0.000000e+00 0.000000e+00 0.000000e+00 0.000000e+00 0.000000e+00 0.000000e+00 0.000000e+00 0.000000e+00 0.000000e+00 0.000000e+00 0.000000e+00 0.000000e+00 0.000000e+00 0.000000e+00 0.000000e+00 0.000000e+00 0.000000e+00 0.000000e+00
0.000000e+00 0.000000e+00 0.000000e+00 0.000000e+00 0.000000e+00 0.000000e+00 0.000000e+00 0.000000e+00 0.000000e+00 0.000000e+00 0.000000e+00 0.000000e+00 0.000000e+00 0.000000e+00 0.000000e+00 0.000000e+00 0.000000e+00 0.000000e+00 0.000000e+00 0.000000e+00 0.000000e+00 0.000000e+00 0.000000e+00 0.000000e+00 0.000000e+00 0.000000e+00 0.000000e+00 0.000000e+00 0.000000e+00 0.000000e+00 0.000000e+00 0.000000e+00 0.000000e+00 0.000000e+00 0.000000e+00 0.000000e+00 0.000000e+00 0.000000e+00 0.000000e+00 0.000000e+00 0.000000e+00 0.000000e+00 0.000000e+00 0.000000e+00 0.000000e+00 0.000000e+00 0.000000e+00 0.000000e+00 0.000000e+00 0.000000e+00 0.000000e+00 0.000000e+00 0.000000e+00 0.000000e+00 0.000000e+00 0.000000e+00 0.000000e+00 0.000000e+00 0.000000e+00 0.000000e+00 0.000000e+00 0.000000e+00 0.000000e+00 0.000000e+00 0.000000e+00 0.000000e+00 0.000000e+00 0.000000e+00 0.000000e+00 0.000000e+00 0.000000e+00 0.000000e+00 0.000000e+00 0.000000e+00 0.000000e+00 0.000000e+00 0.000000e+00 0.000000e+00 0.000000e+00 0.000000e+00 0.000000e+00
0.000000e+00 0.000000e+00 0.000000e+00 0.000000e+00 0.000000e+00 0.000000e+00 0.000000e+00 0.000000e+00 0.000000e+00 0.000000e+00 0.000000e+00 0.000000e+00 0.000000e+00 0.000000e+00 0.000000e+00 0.000000e+00 0.000000e+00 0.000000e+00 0.000000e+00 0.000000e+00 0.000000e+00 0.000000e+00 0.000000e+00 0.000000e+00 0.000000e+00 0.000000e+00 0.000000e+00 0.000000e+00 0.000000e+00 0.000000e+00 0.000000e+00 0.000000e+00 0.000000e+00 0.000000e+00 0.000000e+00 0.000000e+00 0.000000e+00 0.000000e+00 0.000000e+00 0.000000e+00 0.000000e+00 0.000000e+00 0.000000e+00 0.000000e+00 0.000000e+00 0.000000e+00 0.000000e+00 0.000000e+00 0.000000e+00 0.000000e+00 0.000000e+00 0.000000e+00 0.000000e+00 0.000000e+00 0.000000e+00 0.000000e+00 0.000000e+00 0.000000e+00 0.000000e+00 0.000000e+00 0.000000e+00 0.000000e+00 0.000000e+00 0.000000e+00 0.000000e+00 0.000000e+00 0.000000e+00 0.000000e+00 0.000000e+00 0.000000e+00 0.000000e+00 0.000000e+00 0.000000e+00 0.000000e+00 0.000000e+00 0.000000e+00 0.000000e+00 0.000000e+00 0.000000e+00 0.000000e+00 0.000000e+00
0.000000e+00 0.000000e+00 0.000000e+00 0.000000e+00 0.000000e+00 0.000000e+00 0.000000e+00 0.000000e+00 0.000000e+00 0.000000e+00 0.000000e+00 0.000000e+00 0.000000e+00 0.000000e+00 0.000000e+00 0.000000e+00 0.000000e+00 0.000000e+00 0.000000e+00 0.000000e+00 0.000000e+00 0.000000e+00 0.000000e+00 0.000000e+00 0.000000e+00 0.000000e+00 0.000000e+00 0.000000e+00 0.000000e+00 0.000000e+00 0.000000e+00 0.000000e+00 0.000000e+00 0.000000e+00 0.000000e+00 0.000000e+00 0.000000e+00 0.000000e+00 0.000000e+00 0.000000e+00 0.000000e+00 0.000000e+00 0.000000e+00 0.000000e+00 0.000000e+00 0.000000e+00 0.000000e+00 0.000000e+00 0.000000e+00 0.000000e+00 0.000000e+00 0.000000e+00 0.000000e+00 0.000000e+00 0.000000e+00 0.000000e+00 0.000000e+00 0.000000e+00 0.000000e+00 0.000000e+00 0.000000e+00 0.000000e+00 0.000000e+00 0.000000e+00 0.000000e+00 0.000000e+00 0.000000e+00 0.000000e+00 0.000000e+00 0.000000e+00 0.000000e+00 0.000000e+00 0.000000e+00 0.000000e+00 0.000000e+00 0.000000e+00 0.000000e+00 0.000000e+00 0.000000e+00 0.000000e+00 0.000000e+00
0.000000e+00 0.000000e+00 0.000000e+00 0.000000e+00 0.000000e+00 0.000000e+00 0.000000e+00 0.000000e+00 0.000000e+00 0.000000e+00 0.000000e+00 0.000000e+00 0.000000e+00 0.000000e+00 0.000000e+00 0.000000e+00 0.000000e+00 0.000000e+00 0.000000e+00 0.000000e+00 0.000000e+00 0.000000e+00 0.000000e+00 0.000000e+00 0.000000e+00 0.000000e+00 0.000000e+00 0.000000e+00 0.000000e+00 0.000000e+00 0.000000e+00 0.000000e+00 0.000000e+00 0.000000e+00 0.000000e+00 0.000000e+00 0.000000e+00 0.000000e+00 0.000000e+00 0.000000e+00 0.000000e+00 0.000000e+00 0.000000e+00 0.000000e+00 0.000000e+00 0.000000e+00 0.000000e+00 0.000000e+00 0.000000e+00 0.000000e+00 0.000000e+00 0.000000e+00 0.000000e+00 0.000000e+00 0.000000e+00 0.000000e+00 0.000000e+00 0.000000e+00 0.000000e+00 0.000000e+00 0.000000e+00 0.000000e+00 0.000000e+00 0.000000e+00 0.000000e+00 0.000000e+00 0.000000e+00 0.000000e+00 0.000000e+00 0.000000e+00 0.000000e+00 0.000000e+00 0.000000e+00 0.000000e+00 0.000000e+00 0.000000e+00 0.000000e+00 0.000000e+00 0.000000e+00 0.000000e+00 0.000000e+00
0.000000e+00 0.000000e+00 0.000000e+00 0.000000e+00 0.000000e+00 0.000000e+00 0.000000e+00 0.000000e+00 0.000000e+00 0.000000e+00 0.000000e+00 0.000000e+00 0.000000e+00 0.000000e+00 0.000000e+00 0.000000e+00 0.000000e+00 0.000000e+00 0.000000e+00 0.000000e+00 0.000000e+00 0.000000e+00 0.000000e+00 0.000000e+00 0.000000e+00 0.000000e+00 0.000000e+00 0.000000e+00 0.000000e+00 0.000000e+00 0.000000e+00 0.000000e+00 0.000000e+00 0.000000e+00 0.000000e+00 0.000000e+00 0.000000e+00 0.000000e+00 0.000000e+00 0.000000e+00 0.000000e+00 0.000000e+00 0.000000e+00 0.000000e+00 0.000000e+00 0.000000e+00 0.000000e+00 0.000000e+00 0.000000e+00 0.000000e+00 0.000000e+00 0.000000e+00 0.000000e+00 0.000000e+00 0.000000e+00 0.000000e+00 0.000000e+00 0.000000e+00 0.000000e+00 0.000000e+00 0.000000e+00 0.000000e+00 0.000000e+00 0.000000e+00 0.000000e+00 0.000000e+00 0.000000e+00 0.000000e+00 0.000000e+00 0.000000e+00 0.000000e+00 0.000000e+00 0.000000e+00 0.000000e+00 0.000000e+00 0.000000e+00 0.000000e+00 0.000000e+00 0.000000e+00 0.000000e+00 0.000000e+00
0.000000e+00 0.000000e+00 0.000000e+00 0.000000e+00 0.000000e+00 0.000000e+00 0.000000e+00 0.000000e+00 0.000000e+00 0.000000e+00 0.000000e+00 0.000000e+00 0.000000e+00 0.000000e+00 0.000000e+00 0.000000e+00 0.000000e+00 0.000000e+00 0.000000e+00 0.000000e+00 0.000000e+00 0.000000e+00 0.000000e+00 0.000000e+00 0.000000e+00 0.000000e+00 0.000000e+00 0.000000e+00 0.000000e+00 0.000000e+00 0.000000e+00 0.000000e+00 0.000000e+00 0.000000e+00 0.000000e+00 0.000000e+00 0.000000e+00 0.000000e+00 0.000000e+00 0.000000e+00 0.000000e+00 0.000000e+00 0.000000e+00 0.000000e+00 0.000000e+00 0.000000e+00 0.000000e+00 0.000000e+00 0.000000e+00 0.000000e+00 0.000000e+00 0.000000e+00 0.000000e+00 0.000000e+00 0.000000e+00 0.000000e+00 0.000000e+00 0.000000e+00 0.000000e+00 0.000000e+00 0.000000e+00 0.000000e+00 0.000000e+00 0.000000e+00 0.000000e+00 0.000000e+00 0.000000e+00 0.000000e+00 0.000000e+00 0.000000e+00 0.000000e+00 0.000000e+00 0.000000e+00 0.000000e+00 0.000000e+00 0.000000e+00 0.000000e+00 0.000000e+00 0.000000e+00 0.000000e+00 0.000000e+00
0.000000e+00 0.000000e+00 0.000000e+00 0.000000e+00 0.000000e+00 0.000000e+00 0.000000e+00 0.000000e+00 0.000000e+00 0.000000e+00 0.000000e+00 0.000000e+00 0.000000e+00 0.000000e+00 0.000000e+00 0.000000e+00 0.000000e+00 0.000000e+00 0.000000e+00 0.000000e+00 0.000000e+00 0.000000e+00 0.000000e+00 0.000000e+00 0.000000e+00 0.000000e+00 0.000000e+00 0.000000e+00 0.000000e+00 0.000000e+00 0.000000e+00 0.000000e+00 0.000000e+00 0.000000e+00 0.000000e+00 0.000000e+00 0.000000e+00 0.000000e+00 0.000000e+00 0.000000e+00 0.000000e+00 0.000000e+00 0.000000e+00 0.000000e+00 0.000000e+00 0.000000e+00 0.000000e+00 0.000000e+00 0.000000e+00 0.000000e+00 0.000000e+00 0.000000e+00 0.000000e+00 0.000000e+00 0.000000e+00 0.000000e+00 0.000000e+00 0.000000e+00 0.000000e+00 0.000000e+00 0.000000e+00 0.000000e+00 0.000000e+00 0.000000e+00 0.000000e+00 0.000000e+00 0.000000e+00 0.000000e+00 0.000000e+00 0.000000e+00 0.000000e+00 0.000000e+00 0.000000e+00 0.000000e+00 0.000000e+00 0.000000e+00 0.000000e+00 0.000000e+00 0.000000e+00 0.000000e+00 0.000000e+00
0.000000e+00 0.000000e+00 0.000000e+00 0.000000e+00 0.000000e+00 0.000000e+00 0.000000e+00 0.000000e+00 0.000000e+00 0.000000e+00 0.000000e+00 0.000000e+00 0.000000e+00 0.000000e+00 0.000000e+00 0.000000e+00 0.000000e+00 0.000000e+00 0.000000e+00 0.000000e+00 0.000000e+00 0.000000e+00 0.000000e+00 0.000000e+00 0.000000e+00 0.000000e+00 0.000000e+00 0.000000e+00 0.000000e+00 0.000000e+00 0.000000e+00 0.000000e+00 0.000000e+00 0.000000e+00 0.000000e+00 0.000000e+00 0.000000e+00 0.000000e+00 0.000000e+00 0.000000e+00 0.000000e+00 0.000000e+00 0.000000e+00 0.000000e+00 0.000000e+00 0.000000e+00 0.000000e+00 0.000000e+00 0.000000e+00 0.000000e+00 0.000000e+00 0.000000e+00 0.000000e+00 0.000000e+00 0.000000e+00 0.000000e+00 0.000000e+00 0.000000e+00 0.000000e+00 0.000000e+00 0.000000e+00 0.000000e+00 0.000000e+00 0.000000e+00 0.000000e+00 0.000000e+00 0.000000e+00 0.000000e+00 0.000000e+00 0.000000e+00 0.000000e+00 0.000000e+00 0.000000e+00 0.000000e+00 0.000000e+00 0.000000e+00 0.000000e+00 0.000000e+00 0.000000e+00 0.000000e+00 0.000000e+00
0.000000e+00 0.000000e+00 0.000000e+00 0.000000e+00 0.000000e+00 0.000000e+00 0.000000e+00 0.000000e+00 0.000000e+00 0.000000e+00 0.000000e+00 0.000000e+00 0.000000e+00 0.000000e+00 0.000000e+00 0.000000e+00 0.000000e+00 0.000000e+00 0.000000e+00 0.000000e+00 0.000000e+00 0.000000e+00 0.000000e+00 0.000000e+00 0.000000e+00 0.000000e+00 0.000000e+00 0.000000e+00 0.000000e+00 0.000000e+00 0.000000e+00 0.000000e+00 0.000000e+00 0.000000e+00 0.000000e+00 0.000000e+00 0.000000e+00 0.000000e+00 0.000000e+00 0.000000e+00 0.000000e+00 0.000000e+00 0.000000e+00 0.000000e+00 0.000000e+00 0.000000e+00 0.000000e+00 0.000000e+00 0.000000e+00 0.000000e+00 0.000000e+00 0.000000e+00 0.000000e+00 0.000000e+00 0.000000e+00 0.000000e+00 0.000000e+00 0.000000e+00 0.000000e+00 0.000000e+00 0.000000e+00 0.000000e+00 0.000000e+00 0.000000e+00 0.000000e+00 0.000000e+00 0.000000e+00 0.000000e+00 0.000000e+00 0.000000e+00 0.000000e+00 0.000000e+00 0.000000e+00 0.000000e+00 0.000000e+00 0.000000e+00 0.000000e+00 0.000000e+00 0.000000e+00 0.000000e+00 0.000000e+00
0.000000e+00 0.000000e+00 0.000000e+00 0.000000e+00 0.000000e+00 0.000000e+00 0.000000e+00 0.000000e+00 0.000000e+00 0.000000e+00 0.000000e+00 0.000000e+00 0.000000e+00 0.000000e+00 0.000000e+00 0.000000e+00 0.000000e+00 0.000000e+00 0.000000e+00 0.000000e+00 0.000000e+00 0.000000e+00 0.000000e+00 0.000000e+00 0.000000e+00 0.000000e+00 0.000000e+00 0.000000e+00 0.000000e+00 0.000000e+00 0.000000e+00 0.000000e+00 0.000000e+00 0.000000e+00 0.000000e+00 0.000000e+00 0.000000e+00 0.000000e+00 0.000000e+00 0.000000e+00 0.000000e+00 0.000000e+00 0.000000e+00 0.000000e+00 0.000000e+00 0.000000e+00 0.000000e+00 0.000000e+00 0.000000e+00 0.000000e+00 0.000000e+00 0.000000e+00 0.000000e+00 0.000000e+00 0.000000e+00 0.000000e+00 0.000000e+00 0.000000e+00 0.000000e+00 0.000000e+00 0.000000e+00 0.000000e+00 0.000000e+00 0.000000e+00 0.000000e+00 0.000000e+00 0.000000e+00 0.000000e+00 0.000000e+00 0.000000e+00 0.000000e+00 0.000000e+00 0.000000e+00 0.000000e+00 0.000000e+00 0.000000e+00 0.000000e+00 0.000000e+00 0.000000e+00 0.000000e+00 0.000000e+00
0.000000e+00 0.000000e+00 0.000000e+00 0.000000e+00 0.000000e+00 0.000000e+00 0.000000e+00 0.000000e+00 0.000000e+00 0.000000e+00 0.000000e+00 0.000000e+00 0.000000e+00 0.000000e+00 0.000000e+00 0.000000e+00 0.000000e+00 0.000000e+00 0.000000e+00 0.000000e+00 0.000000e+00 0.000000e+00 0.000000e+00 0.000000e+00 0.000000e+00 0.000000e+00 0.000000e+00 0.000000e+00 0.000000e+00 0.000000e+00 0.000000e+00 0.000000e+00 0.000000e+00 0.000000e+00 0.000000e+00 0.000000e+00 0.000000e+00 0.000000e+00 0.000000e+00 0.000000e+00 0.000000e+00 0.000000e+00 0.000000e+00 0.000000e+00 0.000000e+00 0.000000e+00 0.000000e+00 0.000000e+00 0.000000e+00 0.000000e+00 0.000000e+00 0.000000e+00 0.000000e+00 0.000000e+00 0.000000e+00 0.000000e+00 0.000000e+00 0.000000e+00 0.000000e+00 0.000000e+00 0.000000e+00 0.000000e+00 0.000000e+00 0.000000e+00 0.000000e+00 0.000000e+00 0.000000e+00 0.000000e+00 0.000000e+00 0.000000e+00 0.000000e+00 0.000000e+00 0.000000e+00 0.000000e+00 0.000000e+00 0.000000e+00 0.000000e+00 0.000000e+00 0.000000e+00 0.000000e+00 0.000000e+00