# vtk DataFile Version 2.0
Simplicial Mesh Example
ASCII
DATASET UNSTRUCTURED_GRID
POINTS 8 double
-5.000000e-01 -5.000000e-01 5.000000e-01
-5.000000e-01 -5.000000e-01 -5.000000e-01
-5.000000e-01 5.000000e-01 -5.000000e-01
-5.000000e-01 5.000000e-01 5.000000e-01
5.000000e-01 -5.000000e-01 5.000000e-01
5.000000e-01 -5.000000e-01 -5.000000e-01
5.000000e-01 5.000000e-01 -5.000000e-01
5.000000e-01 5.000000e-01 5.000000e-01
CELLS 1 9
8  0 1 2 3 4 5 6 7
CELL_TYPES 1
12
POINT_DATA 8
VECTORS Vec_0x84000000_7PetscFE_0x84000000_3 double
-1.708337e-18 -5.694456e-19 2.847228e-19
1.250000e-01 1.250000e-01 1.250000e-01
-1.250000e-01 -1.250000e-01 -1.250000e-01
1.250000e-01 1.250000e-01 1.250000e-01
-1.250000e-01 -1.250000e-01 -1.250000e-01
-1.250000e-01 -1.250000e-01 -1.250000e-01
1.250000e-01 1.250000e-01 1.250000e-01
-1.250000e-01 -1.250000e-01 -1.250000e-01
1.250000e-01 1.250000e-01 1.250000e-01
